    1C
    2C                        3          
 -1         1-4.00000E+01-2.50000E+01 0.00000E+00
 -1         2 1.00000E+01-2.50000E+01 0.00000E+00
 -1         3 0.00000E+00 3.00000E+01 6.00000E+00
 -3
  100CL101 1
 -4  DISP        4    1
 -5  D1          1    2    1    0
 -5  D2          1    2    2    0
 -5  D3          1    2    3    0
 -5  ALL         1    2    0    0    1ALL
 -1         1-4.27576E-09-3.02672E-07-2.66645E-07
 -1         2 1.00000E-06 0.00000E+00 0.00000E+00
 -1         3 0.00000E+00 0.00000E+00 3.00000E-06
 -3
  100CL101 1
 -4  STRESS      6    1
 -5  SXX         1    4    1    1
 -5  SYY         1    4    1    1
 -5  SZZ         1    4    1    1
 -5  SXY         1    4    1    1
 -5  SYZ         1    4    1    1
 -5  SZX         1    4    1    1
 -1         1 1.00000E+08 0.00000E+00 0.00000E+00 0.00000E+00 0.00000E+00 0.00000E+00
 -1         2 5.00000E+07 0.00000E+00 0.00000E+00 0.00000E+00 0.00000E+00 0.00000E+00
 -1         3-1.00000E+07-2.00000E+07-3.00000E+07 1.00000E+06 2.00000E+06 3.00000E+06
 -3
 9999
